<?xml version="1.0" encoding="UTF-8"?>

<!-- generated on 2021-10-06 00:04:45 by Eclipse SUMO sumo Version 1.10.0
<configuration xmlns:xsi="http://www.w3.org/2001/XMLSchema-instance" xsi:noNamespaceSchemaLocation="http://sumo.dlr.de/xsd/sumoConfiguration.xsd">

    <input>
        <net-file value="osm.net.xml"/>
        <route-files value="Route1.rou.xml,Pedestrians.rou.xml"/>
        <additional-files value="osm.poly.xml,Additional.add.xml,junction.poly.xml"/>
    </input>

    <output>
        <emission-output value="emission.xml"/>
    </output>

    <processing>
        <ignore-route-errors value="true"/>
    </processing>

    <routing>
        <device.rerouting.adaptation-steps value="18"/>
        <device.rerouting.adaptation-interval value="10"/>
    </routing>

    <report>
        <verbose value="true"/>
        <duration-log.statistics value="true"/>
        <no-step-log value="true"/>
    </report>

    <gui_only>
        <gui-settings-file value="osm.view.xml"/>
    </gui_only>

</configuration>
-->

<emission-export xmlns:xsi="http://www.w3.org/2001/XMLSchema-instance" xsi:noNamespaceSchemaLocation="http://sumo.dlr.de/xsd/emission_file.xsd">
    <timestep time="0.00"/>
    <timestep time="1.00"/>
    <timestep time="2.00"/>
    <timestep time="3.00"/>
    <timestep time="4.00"/>
    <timestep time="5.00"/>
    <timestep time="6.00"/>
    <timestep time="7.00"/>
    <timestep time="8.00"/>
    <timestep time="9.00"/>
    <timestep time="10.00"/>
    <timestep time="11.00"/>
    <timestep time="12.00"/>
    <timestep time="13.00"/>
    <timestep time="14.00"/>
    <timestep time="15.00"/>
    <timestep time="16.00"/>
    <timestep time="17.00"/>
    <timestep time="18.00"/>
    <timestep time="19.00"/>
    <timestep time="20.00">
        <vehicle id="vehicle_0" eclass="HBEFA3/PC_G_EU4" CO2="2624.72" CO="164.78" HC="0.81" NOx="1.20" PMx="0.07" fuel="1.13" electricity="0.00" noise="55.94" route="route_0" type="vType_0" waiting="0.00" lane="-205752980#2_1" pos="5.10" speed="0.00" angle="162.70" x="163.19" y="224.86"/>
    </timestep>
    <timestep time="21.00">
        <vehicle id="vehicle_0" eclass="HBEFA3/PC_G_EU4" CO2="3201.94" CO="147.37" HC="0.75" NOx="1.43" PMx="0.07" fuel="1.38" electricity="0.00" noise="64.20" route="route_0" type="vType_0" waiting="0.00" lane="-205752980#2_1" pos="6.83" speed="1.73" angle="162.70" x="163.70" y="223.21"/>
    </timestep>
    <timestep time="22.00">
        <vehicle id="vehicle_0" eclass="HBEFA3/PC_G_EU4" CO2="3554.73" CO="131.16" HC="0.68" NOx="1.55" PMx="0.07" fuel="1.53" electricity="0.00" noise="63.84" route="route_0" type="vType_0" waiting="0.00" lane="-205752980#2_1" pos="10.06" speed="3.23" angle="162.70" x="164.66" y="220.13"/>
    </timestep>
    <timestep time="23.00">
        <vehicle id="vehicle_0" eclass="HBEFA3/PC_G_EU4" CO2="6066.30" CO="146.89" HC="0.81" NOx="2.67" PMx="0.13" fuel="2.61" electricity="0.00" noise="69.69" route="route_0" type="vType_0" waiting="0.00" lane="-205752980#2_1" pos="15.88" speed="5.82" angle="162.70" x="166.39" y="214.57"/>
    </timestep>
    <timestep time="24.00">
        <vehicle id="vehicle_0" eclass="HBEFA3/PC_G_EU4" CO2="4264.03" CO="95.19" HC="0.53" NOx="1.79" PMx="0.08" fuel="1.83" electricity="0.00" noise="64.25" route="route_0" type="vType_0" waiting="0.00" lane="-205752980#2_1" pos="22.89" speed="7.01" angle="162.70" x="168.48" y="207.88"/>
    </timestep>
    <timestep time="25.00">
        <vehicle id="vehicle_0" eclass="HBEFA3/PC_G_EU4" CO2="0.00" CO="0.00" HC="0.00" NOx="0.00" PMx="0.00" fuel="0.00" electricity="0.00" noise="59.19" route="route_0" type="vType_0" waiting="0.00" lane="-205752980#2_1" pos="29.79" speed="6.90" angle="162.70" x="170.53" y="201.30"/>
        <vehicle id="vehicle_1" eclass="HBEFA3/PC_G_EU4" CO2="2624.72" CO="164.78" HC="0.81" NOx="1.20" PMx="0.07" fuel="1.13" electricity="0.00" noise="55.94" route="route_2" type="vType_2" waiting="0.00" lane="28456361#0_0" pos="5.10" speed="0.00" angle="251.07" x="288.57" y="152.07"/>
    </timestep>
    <timestep time="26.00">
        <vehicle id="vehicle_0" eclass="HBEFA3/PC_G_EU4" CO2="2336.49" CO="55.25" HC="0.30" NOx="0.88" PMx="0.03" fuel="1.00" electricity="0.00" noise="60.12" route="route_0" type="vType_0" waiting="0.00" lane="-205752980#2_1" pos="36.82" speed="7.03" angle="162.70" x="172.62" y="194.59"/>
        <vehicle id="vehicle_1" eclass="HBEFA3/PC_G_EU4" CO2="3815.82" CO="149.89" HC="0.77" NOx="1.70" PMx="0.08" fuel="1.64" electricity="0.00" noise="67.24" route="route_2" type="vType_2" waiting="0.00" lane="28456361#0_0" pos="7.46" speed="2.36" angle="251.07" x="286.33" y="151.30"/>
    </timestep>
    <timestep time="27.00">
        <vehicle id="vehicle_0" eclass="HBEFA3/PC_G_EU4" CO2="0.00" CO="0.00" HC="0.00" NOx="0.00" PMx="0.00" fuel="0.00" electricity="0.00" noise="58.08" route="route_0" type="vType_0" waiting="0.00" lane="-205752980#2_1" pos="43.47" speed="6.65" angle="162.70" x="174.60" y="188.24"/>
        <vehicle id="vehicle_1" eclass="HBEFA3/PC_G_EU4" CO2="3574.17" CO="124.28" HC="0.65" NOx="1.55" PMx="0.07" fuel="1.54" electricity="0.00" noise="63.44" route="route_2" type="vType_2" waiting="0.00" lane="28456361#0_0" pos="11.19" speed="3.72" angle="251.07" x="282.81" y="150.09"/>
    </timestep>
    <timestep time="28.00">
        <vehicle id="vehicle_0" eclass="HBEFA3/PC_G_EU4" CO2="0.00" CO="0.00" HC="0.00" NOx="0.00" PMx="0.00" fuel="0.00" electricity="0.00" noise="59.06" route="route_0" type="vType_0" waiting="0.00" lane="-205752980#2_1" pos="50.04" speed="6.57" angle="162.70" x="176.55" y="181.97"/>
        <vehicle id="vehicle_1" eclass="HBEFA3/PC_G_EU4" CO2="4410.91" CO="119.02" HC="0.65" NOx="1.90" PMx="0.09" fuel="1.90" electricity="0.00" noise="65.27" route="route_2" type="vType_2" waiting="0.00" lane="28456361#0_0" pos="16.53" speed="5.34" angle="251.07" x="277.75" y="148.36"/>
    </timestep>
    <timestep time="29.00">
        <vehicle id="vehicle_0" eclass="HBEFA3/PC_G_EU4" CO2="2235.19" CO="57.75" HC="0.31" NOx="0.84" PMx="0.03" fuel="0.96" electricity="0.00" noise="59.67" route="route_0" type="vType_0" waiting="0.00" lane="-205752980#2_1" pos="56.68" speed="6.64" angle="162.70" x="178.53" y="175.62"/>
        <vehicle id="vehicle_1" eclass="HBEFA3/PC_G_EU4" CO2="5282.70" CO="115.41" HC="0.65" NOx="2.27" PMx="0.10" fuel="2.27" electricity="0.00" noise="66.54" route="route_2" type="vType_2" waiting="0.00" lane="28456361#0_0" pos="23.60" speed="7.07" angle="251.07" x="271.06" y="146.06"/>
    </timestep>
    <timestep time="30.00">
        <vehicle id="vehicle_0" eclass="HBEFA3/PC_G_EU4" CO2="0.00" CO="0.00" HC="0.00" NOx="0.00" PMx="0.00" fuel="0.00" electricity="0.00" noise="58.62" route="route_0" type="vType_0" waiting="0.00" lane="-205752980#2_1" pos="63.15" speed="6.46" angle="161.77" x="180.53" y="169.48"/>
        <vehicle id="vehicle_1" eclass="HBEFA3/PC_G_EU4" CO2="6072.76" CO="112.52" HC="0.66" NOx="2.59" PMx="0.12" fuel="2.61" electricity="0.00" noise="67.42" route="route_2" type="vType_2" waiting="0.00" lane="28456361#0_0" pos="32.41" speed="8.81" angle="251.07" x="262.73" y="143.21"/>
    </timestep>
    <timestep time="31.00">
        <vehicle id="vehicle_0" eclass="HBEFA3/PC_G_EU4" CO2="2312.17" CO="60.11" HC="0.32" NOx="0.88" PMx="0.03" fuel="0.99" electricity="0.00" noise="59.79" route="route_0" type="vType_0" waiting="0.00" lane="-205752980#2_1" pos="69.73" speed="6.58" angle="161.77" x="182.58" y="163.23"/>
        <vehicle id="vehicle_1" eclass="HBEFA3/PC_G_EU4" CO2="3453.73" CO="52.99" HC="0.32" NOx="1.34" PMx="0.05" fuel="1.48" electricity="0.00" noise="63.15" route="route_2" type="vType_2" waiting="0.00" lane="28456361#0_0" pos="41.77" speed="9.36" angle="251.07" x="253.88" y="140.17"/>
    </timestep>
    <timestep time="32.00">
        <vehicle id="vehicle_0" eclass="HBEFA3/PC_G_EU4" CO2="0.00" CO="0.00" HC="0.00" NOx="0.00" PMx="0.00" fuel="0.00" electricity="0.00" noise="58.54" route="route_0" type="vType_0" waiting="0.00" lane="-205752980#2_1" pos="76.12" speed="6.39" angle="161.77" x="184.58" y="157.16"/>
        <vehicle id="vehicle_1" eclass="HBEFA3/PC_G_EU4" CO2="0.00" CO="0.00" HC="0.00" NOx="0.00" PMx="0.00" fuel="0.00" electricity="0.00" noise="60.51" route="route_2" type="vType_2" waiting="0.00" lane="28456361#0_0" pos="50.91" speed="9.15" angle="251.07" x="245.23" y="137.20"/>
    </timestep>
    <timestep time="33.00">
        <vehicle id="vehicle_0" eclass="HBEFA3/PC_G_EU4" CO2="3087.54" CO="71.80" HC="0.40" NOx="1.24" PMx="0.05" fuel="1.33" electricity="0.00" noise="61.64" route="route_0" type="vType_0" waiting="0.00" lane="-205752980#2_1" pos="83.06" speed="6.94" angle="161.77" x="186.75" y="150.57"/>
        <vehicle id="vehicle_1" eclass="HBEFA3/PC_G_EU4" CO2="2746.63" CO="37.95" HC="0.23" NOx="1.01" PMx="0.03" fuel="1.18" electricity="0.00" noise="62.19" route="route_2" type="vType_2" waiting="0.00" lane="28456361#0_0" pos="60.32" speed="9.41" angle="251.07" x="236.32" y="134.15"/>
    </timestep>
    <timestep time="34.00">
        <vehicle id="vehicle_0" eclass="HBEFA3/PC_G_EU4" CO2="0.00" CO="0.00" HC="0.00" NOx="0.00" PMx="0.00" fuel="0.00" electricity="0.00" noise="58.11" route="route_0" type="vType_0" waiting="0.00" lane="-205752980#2_1" pos="89.64" speed="6.58" angle="161.77" x="188.81" y="144.32"/>
        <vehicle id="vehicle_1" eclass="HBEFA3/PC_G_EU4" CO2="2419.17" CO="29.96" HC="0.19" NOx="0.85" PMx="0.02" fuel="1.04" electricity="0.00" noise="61.84" route="route_2" type="vType_2" waiting="0.00" lane="28456361#0_0" pos="69.86" speed="9.54" angle="251.07" x="227.30" y="131.06"/>
    </timestep>
    <timestep time="35.00">
        <vehicle id="vehicle_0" eclass="HBEFA3/PC_G_EU4" CO2="2664.30" CO="63.57" HC="0.35" NOx="1.04" PMx="0.04" fuel="1.15" electricity="0.00" noise="60.72" route="route_0" type="vType_0" waiting="0.00" lane="-205752980#2_1" pos="96.54" speed="6.90" angle="161.77" x="190.97" y="137.77"/>
        <vehicle id="vehicle_1" eclass="HBEFA3/PC_G_EU4" CO2="0.00" CO="0.00" HC="0.00" NOx="0.00" PMx="0.00" fuel="0.00" electricity="0.00" noise="59.73" route="route_2" type="vType_2" waiting="0.00" lane="28456361#0_0" pos="78.93" speed="9.07" angle="251.07" x="218.72" y="128.11"/>
    </timestep>
    <timestep time="36.00">
        <vehicle id="vehicle_0" eclass="HBEFA3/PC_G_EU4" CO2="2315.66" CO="54.99" HC="0.30" NOx="0.87" PMx="0.03" fuel="1.00" electricity="0.00" noise="60.07" route="route_0" type="vType_0" waiting="0.00" lane="-205752980#2_1" pos="103.55" speed="7.01" angle="161.77" x="193.16" y="131.11"/>
        <vehicle id="vehicle_1" eclass="HBEFA3/PC_G_EU4" CO2="0.00" CO="0.00" HC="0.00" NOx="0.00" PMx="0.00" fuel="0.00" electricity="0.00" noise="58.61" route="route_2" type="vType_2" waiting="0.00" lane="28456361#0_0" pos="87.32" speed="8.39" angle="251.07" x="210.78" y="125.39"/>
    </timestep>
    <timestep time="37.00">
        <vehicle id="vehicle_0" eclass="HBEFA3/PC_G_EU4" CO2="0.00" CO="0.00" HC="0.00" NOx="0.00" PMx="0.00" fuel="0.00" electricity="0.00" noise="46.96" route="route_0" type="vType_0" waiting="0.00" lane="-205752980#2_1" pos="107.30" speed="3.75" angle="161.77" x="194.33" y="127.55"/>
        <vehicle id="vehicle_1" eclass="HBEFA3/PC_G_EU4" CO2="0.00" CO="0.00" HC="0.00" NOx="0.00" PMx="0.00" fuel="0.00" electricity="0.00" noise="57.98" route="route_2" type="vType_2" waiting="0.00" lane=":175670997_1_0" pos="1.57" speed="7.71" angle="249.79" x="203.54" y="122.79"/>
    </timestep>
    <timestep time="38.00">
        <vehicle id="vehicle_0" eclass="HBEFA3/PC_G_EU4" CO2="0.00" CO="0.00" HC="0.00" NOx="0.00" PMx="0.00" fuel="0.00" electricity="0.00" noise="56.58" route="route_0" type="vType_0" waiting="0.00" lane=":175670997_6_0" pos="2.60" speed="3.53" angle="161.69" x="195.44" y="124.21"/>
        <vehicle id="vehicle_1" eclass="HBEFA3/PC_G_EU4" CO2="3431.71" CO="63.21" HC="0.37" NOx="1.36" PMx="0.05" fuel="1.48" electricity="0.00" noise="62.75" route="route_2" type="vType_2" waiting="0.00" lane=":175670997_1_0" pos="9.89" speed="8.32" angle="246.99" x="195.88" y="119.54"/>
    </timestep>
    <timestep time="39.00">
        <vehicle id="vehicle_0" eclass="HBEFA3/PC_G_EU4" CO2="0.00" CO="0.00" HC="0.00" NOx="0.00" PMx="0.00" fuel="0.00" electricity="0.00" noise="42.22" route="route_0" type="vType_0" waiting="0.00" lane=":175670997_6_0" pos="2.97" speed="0.37" angle="161.67" x="195.56" y="123.86"/>
        <vehicle id="vehicle_1" eclass="HBEFA3/PC_G_EU4" CO2="0.00" CO="0.00" HC="0.00" NOx="0.00" PMx="0.00" fuel="0.00" electricity="0.00" noise="56.23" route="route_2" type="vType_2" waiting="0.00" lane="28456361#1_1" pos="0.55" speed="7.17" angle="247.32" x="189.27" y="116.76"/>
    </timestep>
    <timestep time="40.00">
        <vehicle id="vehicle_0" eclass="HBEFA3/PC_G_EU4" CO2="3723.97" CO="146.02" HC="0.75" NOx="1.65" PMx="0.08" fuel="1.60" electricity="0.00" noise="66.22" route="route_0" type="vType_0" waiting="0.00" lane=":175670997_6_0" pos="5.46" speed="2.49" angle="161.61" x="196.34" y="121.49"/>
        <vehicle id="vehicle_1" eclass="HBEFA3/PC_G_EU4" CO2="3235.59" CO="65.63" HC="0.37" NOx="1.28" PMx="0.05" fuel="1.39" electricity="0.00" noise="62.20" route="route_2" type="vType_2" waiting="0.00" lane="28456361#1_1" pos="8.28" speed="7.73" angle="250.00" x="182.00" y="114.12"/>
    </timestep>
    <timestep time="41.00">
        <vehicle id="vehicle_0" eclass="HBEFA3/PC_G_EU4" CO2="3578.37" CO="122.89" HC="0.64" NOx="1.55" PMx="0.07" fuel="1.54" electricity="0.00" noise="63.38" route="route_0" type="vType_0" waiting="0.00" lane=":175670997_6_0" pos="9.29" speed="3.83" angle="161.61" x="197.55" y="117.86"/>
        <vehicle id="vehicle_1" eclass="HBEFA3/PC_G_EU4" CO2="0.00" CO="0.00" HC="0.00" NOx="0.00" PMx="0.00" fuel="0.00" electricity="0.00" noise="59.94" route="route_2" type="vType_2" waiting="0.00" lane="28456361#1_1" pos="15.97" speed="7.68" angle="250.00" x="174.78" y="111.49"/>
    </timestep>
    <timestep time="42.00">
        <vehicle id="vehicle_0" eclass="HBEFA3/PC_G_EU4" CO2="2601.17" CO="97.75" HC="0.50" NOx="1.08" PMx="0.04" fuel="1.12" electricity="0.00" noise="59.32" route="route_0" type="vType_0" waiting="0.00" lane="-205752980#1_1" pos="0.29" speed="4.18" angle="161.59" x="198.87" y="113.90"/>
        <vehicle id="vehicle_1" eclass="HBEFA3/PC_G_EU4" CO2="0.00" CO="0.00" HC="0.00" NOx="0.00" PMx="0.00" fuel="0.00" electricity="0.00" noise="60.04" route="route_2" type="vType_2" waiting="0.00" lane="28456361#1_1" pos="23.63" speed="7.67" angle="250.00" x="167.58" y="108.86"/>
    </timestep>
    <timestep time="43.00">
        <vehicle id="vehicle_0" eclass="HBEFA3/PC_G_EU4" CO2="2959.05" CO="96.48" HC="0.51" NOx="1.23" PMx="0.05" fuel="1.27" electricity="0.00" noise="60.77" route="route_0" type="vType_0" waiting="0.00" lane="-205752980#1_1" pos="5.08" speed="4.80" angle="161.39" x="200.40" y="109.35"/>
        <vehicle id="vehicle_1" eclass="HBEFA3/PC_G_EU4" CO2="0.00" CO="0.00" HC="0.00" NOx="0.00" PMx="0.00" fuel="0.00" electricity="0.00" noise="50.34" route="route_2" type="vType_2" waiting="0.00" lane="28456361#1_1" pos="28.64" speed="5.01" angle="250.00" x="162.87" y="107.15"/>
    </timestep>
    <timestep time="44.00">
        <vehicle id="vehicle_0" eclass="HBEFA3/PC_G_EU4" CO2="0.00" CO="0.00" HC="0.00" NOx="0.00" PMx="0.00" fuel="0.00" electricity="0.00" noise="56.45" route="route_0" type="vType_0" waiting="0.00" lane="-205752980#1_1" pos="9.50" speed="4.41" angle="161.39" x="201.81" y="105.17"/>
        <vehicle id="vehicle_1" eclass="HBEFA3/PC_G_EU4" CO2="0.00" CO="0.00" HC="0.00" NOx="0.00" PMx="0.00" fuel="0.00" electricity="0.00" noise="36.53" route="route_2" type="vType_2" waiting="0.00" lane="28456361#1_1" pos="29.15" speed="0.51" angle="250.00" x="162.39" y="106.97"/>
    </timestep>
    <timestep time="45.00">
        <vehicle id="vehicle_0" eclass="HBEFA3/PC_G_EU4" CO2="2303.28" CO="87.07" HC="0.45" NOx="0.93" PMx="0.04" fuel="0.99" electricity="0.00" noise="58.41" route="route_0" type="vType_0" waiting="0.00" lane="-205752980#1_1" pos="14.00" speed="4.50" angle="161.39" x="203.25" y="100.91"/>
        <vehicle id="vehicle_1" eclass="HBEFA3/PC_G_EU4" CO2="0.00" CO="0.00" HC="0.00" NOx="0.00" PMx="0.00" fuel="0.00" electricity="0.00" noise="53.82" route="route_2" type="vType_2" waiting="0.00" lane="28456361#1_1" pos="29.18" speed="0.03" angle="250.00" x="162.36" y="106.97"/>
    </timestep>
    <timestep time="46.00">
        <vehicle id="vehicle_0" eclass="HBEFA3/PC_G_EU4" CO2="3020.91" CO="93.13" HC="0.49" NOx="1.25" PMx="0.05" fuel="1.30" electricity="0.00" noise="61.02" route="route_0" type="vType_0" waiting="0.00" lane="-205752980#1_1" pos="19.14" speed="5.14" angle="161.39" x="204.89" y="96.04"/>
        <vehicle id="vehicle_1" eclass="HBEFA3/PC_G_EU4" CO2="0.00" CO="0.00" HC="0.00" NOx="0.00" PMx="0.00" fuel="0.00" electricity="0.00" noise="55.82" route="route_2" type="vType_2" waiting="0.00" lane="28456361#1_1" pos="29.18" speed="0.00" angle="250.00" x="162.36" y="106.97"/>
    </timestep>
    <timestep time="47.00">
        <vehicle id="vehicle_0" eclass="HBEFA3/PC_G_EU4" CO2="0.00" CO="0.00" HC="0.00" NOx="0.00" PMx="0.00" fuel="0.00" electricity="0.00" noise="53.72" route="route_0" type="vType_0" waiting="0.00" lane="-205752980#1_1" pos="23.24" speed="4.10" angle="161.39" x="206.19" y="92.15"/>
        <vehicle id="vehicle_1" eclass="HBEFA3/PC_G_EU4" CO2="2624.72" CO="164.78" HC="0.81" NOx="1.20" PMx="0.07" fuel="1.13" electricity="0.00" noise="55.94" route="route_2" type="vType_2" waiting="0.00" lane="28456361#1_1" pos="29.18" speed="0.00" angle="250.00" x="162.36" y="106.97"/>
    </timestep>
    <timestep time="48.00">
        <vehicle id="vehicle_0" eclass="HBEFA3/PC_G_EU4" CO2="0.00" CO="0.00" HC="0.00" NOx="0.00" PMx="0.00" fuel="0.00" electricity="0.00" noise="57.11" route="route_0" type="vType_0" waiting="0.00" lane="-205752980#1_1" pos="27.19" speed="3.95" angle="161.39" x="207.45" y="88.41"/>
        <vehicle id="vehicle_1" eclass="HBEFA3/PC_G_EU4" CO2="2624.72" CO="164.78" HC="0.81" NOx="1.20" PMx="0.07" fuel="1.13" electricity="0.00" noise="55.94" route="route_2" type="vType_2" waiting="0.00" lane="28456361#1_1" pos="29.18" speed="0.00" angle="250.00" x="162.36" y="106.97"/>
    </timestep>
    <timestep time="49.00">
        <vehicle id="vehicle_0" eclass="HBEFA3/PC_G_EU4" CO2="0.00" CO="0.00" HC="0.00" NOx="0.00" PMx="0.00" fuel="0.00" electricity="0.00" noise="57.64" route="route_0" type="vType_0" waiting="0.00" lane="-205752980#1_1" pos="31.12" speed="3.93" angle="161.39" x="208.71" y="84.69"/>
        <vehicle id="vehicle_1" eclass="HBEFA3/PC_G_EU4" CO2="2624.72" CO="164.78" HC="0.81" NOx="1.20" PMx="0.07" fuel="1.13" electricity="0.00" noise="55.94" route="route_2" type="vType_2" waiting="0.00" lane="28456361#1_1" pos="29.18" speed="0.00" angle="250.00" x="162.36" y="106.97"/>
    </timestep>
    <timestep time="50.00">
        <vehicle id="vehicle_0" eclass="HBEFA3/PC_G_EU4" CO2="0.00" CO="0.00" HC="0.00" NOx="0.00" PMx="0.00" fuel="0.00" electricity="0.00" noise="46.07" route="route_0" type="vType_0" waiting="0.00" lane="-205752980#1_1" pos="32.61" speed="1.49" angle="161.39" x="209.18" y="83.28"/>
        <vehicle id="vehicle_1" eclass="HBEFA3/PC_G_EU4" CO2="2624.72" CO="164.78" HC="0.81" NOx="1.20" PMx="0.07" fuel="1.13" electricity="0.00" noise="55.94" route="route_2" type="vType_2" waiting="0.00" lane="28456361#1_1" pos="29.18" speed="0.00" angle="250.00" x="162.36" y="106.97"/>
    </timestep>
    <timestep time="51.00">
        <vehicle id="vehicle_0" eclass="HBEFA3/PC_G_EU4" CO2="0.00" CO="0.00" HC="0.00" NOx="0.00" PMx="0.00" fuel="0.00" electricity="0.00" noise="50.71" route="route_0" type="vType_0" waiting="0.00" lane="-205752980#1_1" pos="32.88" speed="0.28" angle="161.39" x="209.27" y="83.01"/>
        <vehicle id="vehicle_1" eclass="HBEFA3/PC_G_EU4" CO2="2624.72" CO="164.78" HC="0.81" NOx="1.20" PMx="0.07" fuel="1.13" electricity="0.00" noise="55.94" route="route_2" type="vType_2" waiting="0.00" lane="28456361#1_1" pos="29.18" speed="0.00" angle="250.00" x="162.36" y="106.97"/>
    </timestep>
    <timestep time="52.00">
        <vehicle id="vehicle_0" eclass="HBEFA3/PC_G_EU4" CO2="0.00" CO="0.00" HC="0.00" NOx="0.00" PMx="0.00" fuel="0.00" electricity="0.00" noise="54.89" route="route_0" type="vType_0" waiting="0.00" lane="-205752980#1_1" pos="32.92" speed="0.04" angle="161.39" x="209.28" y="82.98"/>
        <vehicle id="vehicle_1" eclass="HBEFA3/PC_G_EU4" CO2="2624.72" CO="164.78" HC="0.81" NOx="1.20" PMx="0.07" fuel="1.13" electricity="0.00" noise="55.94" route="route_2" type="vType_2" waiting="0.00" lane="28456361#1_1" pos="29.18" speed="0.00" angle="250.00" x="162.36" y="106.97"/>
    </timestep>
    <timestep time="53.00">
        <vehicle id="vehicle_0" eclass="HBEFA3/PC_G_EU4" CO2="0.00" CO="0.00" HC="0.00" NOx="0.00" PMx="0.00" fuel="0.00" electricity="0.00" noise="55.78" route="route_0" type="vType_0" waiting="0.00" lane="-205752980#1_1" pos="32.92" speed="0.00" angle="161.39" x="209.28" y="82.98"/>
        <vehicle id="vehicle_1" eclass="HBEFA3/PC_G_EU4" CO2="2624.72" CO="164.78" HC="0.81" NOx="1.20" PMx="0.07" fuel="1.13" electricity="0.00" noise="55.94" route="route_2" type="vType_2" waiting="0.00" lane="28456361#1_1" pos="29.18" speed="0.00" angle="250.00" x="162.36" y="106.97"/>
    </timestep>
    <timestep time="54.00">
        <vehicle id="vehicle_0" eclass="HBEFA3/PC_G_EU4" CO2="2624.72" CO="164.78" HC="0.81" NOx="1.20" PMx="0.07" fuel="1.13" electricity="0.00" noise="55.94" route="route_0" type="vType_0" waiting="0.00" lane="-205752980#1_1" pos="32.92" speed="0.00" angle="161.39" x="209.28" y="82.98"/>
        <vehicle id="vehicle_1" eclass="HBEFA3/PC_G_EU4" CO2="2624.72" CO="164.78" HC="0.81" NOx="1.20" PMx="0.07" fuel="1.13" electricity="0.00" noise="55.94" route="route_2" type="vType_2" waiting="0.00" lane="28456361#1_1" pos="29.18" speed="0.00" angle="250.00" x="162.36" y="106.97"/>
    </timestep>
    <timestep time="55.00">
        <vehicle id="vehicle_0" eclass="HBEFA3/PC_G_EU4" CO2="2624.72" CO="164.78" HC="0.81" NOx="1.20" PMx="0.07" fuel="1.13" electricity="0.00" noise="55.94" route="route_0" type="vType_0" waiting="0.00" lane="-205752980#1_1" pos="32.92" speed="0.00" angle="161.39" x="209.28" y="82.98"/>
        <vehicle id="vehicle_1" eclass="HBEFA3/PC_G_EU4" CO2="2624.72" CO="164.78" HC="0.81" NOx="1.20" PMx="0.07" fuel="1.13" electricity="0.00" noise="55.94" route="route_2" type="vType_2" waiting="0.00" lane="28456361#1_1" pos="29.18" speed="0.00" angle="250.00" x="162.36" y="106.97"/>
    </timestep>
    <timestep time="56.00">
        <vehicle id="vehicle_0" eclass="HBEFA3/PC_G_EU4" CO2="2624.72" CO="164.78" HC="0.81" NOx="1.20" PMx="0.07" fuel="1.13" electricity="0.00" noise="55.94" route="route_0" type="vType_0" waiting="0.00" lane="-205752980#1_1" pos="32.92" speed="0.00" angle="161.39" x="209.28" y="82.98"/>
        <vehicle id="vehicle_1" eclass="HBEFA3/PC_G_EU4" CO2="2624.72" CO="164.78" HC="0.81" NOx="1.20" PMx="0.07" fuel="1.13" electricity="0.00" noise="55.94" route="route_2" type="vType_2" waiting="0.00" lane="28456361#1_1" pos="29.18" speed="0.00" angle="250.00" x="162.36" y="106.97"/>
    </timestep>
    <timestep time="57.00">
        <vehicle id="vehicle_0" eclass="HBEFA3/PC_G_EU4" CO2="2624.72" CO="164.78" HC="0.81" NOx="1.20" PMx="0.07" fuel="1.13" electricity="0.00" noise="55.94" route="route_0" type="vType_0" waiting="0.00" lane="-205752980#1_1" pos="32.92" speed="0.00" angle="161.39" x="209.28" y="82.98"/>
        <vehicle id="vehicle_1" eclass="HBEFA3/PC_G_EU4" CO2="2624.72" CO="164.78" HC="0.81" NOx="1.20" PMx="0.07" fuel="1.13" electricity="0.00" noise="55.94" route="route_2" type="vType_2" waiting="0.00" lane="28456361#1_1" pos="29.18" speed="0.00" angle="250.00" x="162.36" y="106.97"/>
    </timestep>
    <timestep time="58.00">
        <vehicle id="vehicle_0" eclass="HBEFA3/PC_G_EU4" CO2="2624.72" CO="164.78" HC="0.81" NOx="1.20" PMx="0.07" fuel="1.13" electricity="0.00" noise="55.94" route="route_0" type="vType_0" waiting="0.00" lane="-205752980#1_1" pos="32.92" speed="0.00" angle="161.39" x="209.28" y="82.98"/>
        <vehicle id="vehicle_1" eclass="HBEFA3/PC_G_EU4" CO2="2624.72" CO="164.78" HC="0.81" NOx="1.20" PMx="0.07" fuel="1.13" electricity="0.00" noise="55.94" route="route_2" type="vType_2" waiting="0.00" lane="28456361#1_1" pos="29.18" speed="0.00" angle="250.00" x="162.36" y="106.97"/>
    </timestep>
    <timestep time="59.00">
        <vehicle id="vehicle_0" eclass="HBEFA3/PC_G_EU4" CO2="2624.72" CO="164.78" HC="0.81" NOx="1.20" PMx="0.07" fuel="1.13" electricity="0.00" noise="55.94" route="route_0" type="vType_0" waiting="0.00" lane="-205752980#1_1" pos="32.92" speed="0.00" angle="161.39" x="209.28" y="82.98"/>
        <vehicle id="vehicle_1" eclass="HBEFA3/PC_G_EU4" CO2="2624.72" CO="164.78" HC="0.81" NOx="1.20" PMx="0.07" fuel="1.13" electricity="0.00" noise="55.94" route="route_2" type="vType_2" waiting="0.00" lane="28456361#1_1" pos="29.18" speed="0.00" angle="250.00" x="162.36" y="106.97"/>
    </timestep>
    <timestep time="60.00">
        <vehicle id="vehicle_0" eclass="HBEFA3/PC_G_EU4" CO2="2624.72" CO="164.78" HC="0.81" NOx="1.20" PMx="0.07" fuel="1.13" electricity="0.00" noise="55.94" route="route_0" type="vType_0" waiting="0.00" lane="-205752980#1_1" pos="32.92" speed="0.00" angle="161.39" x="209.28" y="82.98"/>
        <vehicle id="vehicle_1" eclass="HBEFA3/PC_G_EU4" CO2="2624.72" CO="164.78" HC="0.81" NOx="1.20" PMx="0.07" fuel="1.13" electricity="0.00" noise="55.94" route="route_2" type="vType_2" waiting="0.00" lane="28456361#1_1" pos="29.18" speed="0.00" angle="250.00" x="162.36" y="106.97"/>
    </timestep>
    <timestep time="61.00">
        <vehicle id="vehicle_0" eclass="HBEFA3/PC_G_EU4" CO2="2624.72" CO="164.78" HC="0.81" NOx="1.20" PMx="0.07" fuel="1.13" electricity="0.00" noise="55.94" route="route_0" type="vType_0" waiting="0.00" lane="-205752980#1_1" pos="32.92" speed="0.00" angle="161.39" x="209.28" y="82.98"/>
        <vehicle id="vehicle_1" eclass="HBEFA3/PC_G_EU4" CO2="2624.72" CO="164.78" HC="0.81" NOx="1.20" PMx="0.07" fuel="1.13" electricity="0.00" noise="55.94" route="route_2" type="vType_2" waiting="0.00" lane="28456361#1_1" pos="29.18" speed="0.00" angle="250.00" x="162.36" y="106.97"/>
    </timestep>
    <timestep time="62.00">
        <vehicle id="vehicle_0" eclass="HBEFA3/PC_G_EU4" CO2="2624.72" CO="164.78" HC="0.81" NOx="1.20" PMx="0.07" fuel="1.13" electricity="0.00" noise="55.94" route="route_0" type="vType_0" waiting="0.00" lane="-205752980#1_1" pos="32.92" speed="0.00" angle="161.39" x="209.28" y="82.98"/>
        <vehicle id="vehicle_1" eclass="HBEFA3/PC_G_EU4" CO2="2624.72" CO="164.78" HC="0.81" NOx="1.20" PMx="0.07" fuel="1.13" electricity="0.00" noise="55.94" route="route_2" type="vType_2" waiting="0.00" lane="28456361#1_1" pos="29.18" speed="0.00" angle="250.00" x="162.36" y="106.97"/>
    </timestep>
    <timestep time="63.00">
        <vehicle id="vehicle_0" eclass="HBEFA3/PC_G_EU4" CO2="2624.72" CO="164.78" HC="0.81" NOx="1.20" PMx="0.07" fuel="1.13" electricity="0.00" noise="55.94" route="route_0" type="vType_0" waiting="0.00" lane="-205752980#1_1" pos="32.92" speed="0.00" angle="161.39" x="209.28" y="82.98"/>
        <vehicle id="vehicle_1" eclass="HBEFA3/PC_G_EU4" CO2="2624.72" CO="164.78" HC="0.81" NOx="1.20" PMx="0.07" fuel="1.13" electricity="0.00" noise="55.94" route="route_2" type="vType_2" waiting="0.00" lane="28456361#1_1" pos="29.18" speed="0.00" angle="250.00" x="162.36" y="106.97"/>
    </timestep>
    <timestep time="64.00">
        <vehicle id="vehicle_0" eclass="HBEFA3/PC_G_EU4" CO2="2624.72" CO="164.78" HC="0.81" NOx="1.20" PMx="0.07" fuel="1.13" electricity="0.00" noise="55.94" route="route_0" type="vType_0" waiting="0.00" lane="-205752980#1_1" pos="32.92" speed="0.00" angle="161.39" x="209.28" y="82.98"/>
        <vehicle id="vehicle_1" eclass="HBEFA3/PC_G_EU4" CO2="2624.72" CO="164.78" HC="0.81" NOx="1.20" PMx="0.07" fuel="1.13" electricity="0.00" noise="55.94" route="route_2" type="vType_2" waiting="0.00" lane="28456361#1_1" pos="29.18" speed="0.00" angle="250.00" x="162.36" y="106.97"/>
    </timestep>
    <timestep time="65.00">
        <vehicle id="vehicle_0" eclass="HBEFA3/PC_G_EU4" CO2="2624.72" CO="164.78" HC="0.81" NOx="1.20" PMx="0.07" fuel="1.13" electricity="0.00" noise="55.94" route="route_0" type="vType_0" waiting="0.00" lane="-205752980#1_1" pos="32.92" speed="0.00" angle="161.39" x="209.28" y="82.98"/>
        <vehicle id="vehicle_1" eclass="HBEFA3/PC_G_EU4" CO2="3826.15" CO="149.96" HC="0.77" NOx="1.71" PMx="0.08" fuel="1.64" electricity="0.00" noise="67.28" route="route_2" type="vType_2" waiting="0.00" lane="28456361#1_1" pos="31.55" speed="2.37" angle="250.00" x="160.14" y="106.15"/>
    </timestep>
    <timestep time="66.00">
        <vehicle id="vehicle_0" eclass="HBEFA3/PC_G_EU4" CO2="2624.72" CO="164.78" HC="0.81" NOx="1.20" PMx="0.07" fuel="1.13" electricity="0.00" noise="55.94" route="route_0" type="vType_0" waiting="0.00" lane="-205752980#1_1" pos="32.92" speed="0.00" angle="161.39" x="209.28" y="82.98"/>
        <vehicle id="vehicle_1" eclass="HBEFA3/PC_G_EU4" CO2="4106.56" CO="129.51" HC="0.69" NOx="1.79" PMx="0.08" fuel="1.77" electricity="0.00" noise="65.30" route="route_2" type="vType_2" waiting="0.00" lane="28456361#1_1" pos="35.67" speed="4.12" angle="250.00" x="156.26" y="104.74"/>
    </timestep>
    <timestep time="67.00">